M 1.00000 1 (210.00, 230.00, 0.00), (490.00, 340.00), 25.00
M 1.00000 4 (430.00, 320.00, 0.00), (300.00, 130.00), 5.00
M 1.00000 5 (270.00, 120.00, 0.00), (190.00, 440.00), 15.00
s 1.000000000 _0_ AGT  --- 0 tcp 40 [0 0 0 0] ------- [0:0 5:0 32 0] [0 0] 0 0
r 1.000000000 _0_ RTR  --- 0 tcp 40 [0 0 0 0] ------- [0:0 5:0 32 0] [0 0] 0 0
s 1.000000000 _2_ AGT  --- 1 tcp 40 [0 0 0 0] ------- [2:0 3:0 32 0] [0 0] 0 0
r 1.000000000 _2_ RTR  --- 1 tcp 40 [0 0 0 0] ------- [2:0 3:0 32 0] [0 0] 0 0
s 1.000000000 _0_ RTR  --- 0 AODV 48 [0 0 0 0] ------- [0:255 -1:255 30 0] [0x2 1 1 [5 0] [0 4]] (REQUEST)
s 1.000000000 _2_ RTR  --- 0 AODV 48 [0 0 0 0] ------- [2:255 -1:255 30 0] [0x2 1 1 [3 0] [2 4]] (REQUEST)
r 1.001248194 _3_ RTR  --- 0 AODV 48 [0 ffffffff 2 800] ------- [2:255 -1:255 30 0] [0x2 1 1 [3 0] [2 4]] (REQUEST)
s 1.001248194 _3_ RTR  --- 0 AODV 44 [0 0 0 0] ------- [3:255 2:255 30 2] [0x4 1 [3 4] 10.000000] (REPLY)
r 1.001248380 _1_ RTR  --- 0 AODV 48 [0 ffffffff 2 800] ------- [2:255 -1:255 30 0] [0x2 1 1 [3 0] [2 4]] (REQUEST)
r 1.001248626 _5_ RTR  --- 0 AODV 48 [0 ffffffff 2 800] ------- [2:255 -1:255 30 0] [0x2 1 1 [3 0] [2 4]] (REQUEST)
r 1.001248671 _0_ RTR  --- 0 AODV 48 [0 ffffffff 2 800] ------- [2:255 -1:255 30 0] [0x2 1 1 [3 0] [2 4]] (REQUEST)
r 1.002407342 _2_ RTR  --- 0 AODV 48 [0 ffffffff 0 800] ------- [0:255 -1:255 30 0] [0x2 1 1 [5 0] [0 4]] (REQUEST)
s 1.004378244 _5_ RTR  --- 0 AODV 48 [0 ffffffff 2 800] ------- [5:255 -1:255 29 0] [0x2 2 1 [3 0] [2 4]] (REQUEST)
s 1.005498132 _2_ RTR  --- 0 AODV 48 [0 ffffffff 0 800] ------- [2:255 -1:255 29 0] [0x2 2 1 [5 0] [0 4]] (REQUEST)
r 1.007045873 _2_ RTR  --- 0 AODV 44 [13a 2 3 800] ------- [3:255 2:255 30 2] [0x4 1 [3 4] 10.000000] (REPLY)
s 1.007045873 _2_ RTR  --- 1 tcp 40 [0 0 0 0] ------- [2:0 3:0 30 3] [0 0] 0 0
r 1.008618067 _3_ RTR  --- 0 AODV 48 [0 ffffffff 2 800] ------- [2:255 -1:255 29 0] [0x2 2 1 [5 0] [0 4]] (REQUEST)
r 1.008618253 _1_ RTR  --- 0 AODV 48 [0 ffffffff 2 800] ------- [2:255 -1:255 29 0] [0x2 2 1 [5 0] [0 4]] (REQUEST)
r 1.008618499 _5_ RTR  --- 0 AODV 48 [0 ffffffff 2 800] ------- [2:255 -1:255 29 0] [0x2 2 1 [5 0] [0 4]] (REQUEST)
s 1.008618499 _5_ RTR  --- 0 AODV 44 [0 0 0 0] ------- [5:255 0:255 30 2] [0x4 1 [5 4] 10.000000] (REPLY)
r 1.008618543 _0_ RTR  --- 0 AODV 48 [0 ffffffff 2 800] ------- [2:255 -1:255 29 0] [0x2 2 1 [5 0] [0 4]] (REQUEST)
s 1.009239935 _1_ RTR  --- 0 AODV 48 [0 ffffffff 2 800] ------- [1:255 -1:255 29 0] [0x2 2 1 [3 0] [2 4]] (REQUEST)
s 1.009413431 _0_ RTR  --- 0 AODV 48 [0 ffffffff 2 800] ------- [0:255 -1:255 29 0] [0x2 2 1 [3 0] [2 4]] (REQUEST)
r 1.009536916 _1_ RTR  --- 0 AODV 48 [0 ffffffff 5 800] ------- [5:255 -1:255 29 0] [0x2 2 1 [3 0] [2 4]] (REQUEST)
r 1.009537041 _3_ RTR  --- 0 AODV 48 [0 ffffffff 5 800] ------- [5:255 -1:255 29 0] [0x2 2 1 [3 0] [2 4]] (REQUEST)
r 1.009537125 _2_ RTR  --- 0 AODV 48 [0 ffffffff 5 800] ------- [5:255 -1:255 29 0] [0x2 2 1 [3 0] [2 4]] (REQUEST)
s 1.009559642 _1_ RTR  --- 0 AODV 48 [0 ffffffff 2 800] ------- [1:255 -1:255 28 0] [0x2 3 1 [5 0] [0 4]] (REQUEST)
s 1.010366120 _3_ RTR  --- 0 AODV 48 [0 ffffffff 2 800] ------- [3:255 -1:255 28 0] [0x2 3 1 [5 0] [0 4]] (REQUEST)
r 1.011187708 _3_ AGT  --- 1 tcp 40 [13a 3 2 800] ------- [2:0 3:0 30 3] [0 0] 1 0
r 1.012419902 _2_ RTR  --- 0 AODV 48 [0 ffffffff 3 800] ------- [3:255 -1:255 28 0] [0x2 3 1 [5 0] [0 4]] (REQUEST)
r 1.012419909 _1_ RTR  --- 0 AODV 48 [0 ffffffff 3 800] ------- [3:255 -1:255 28 0] [0x2 3 1 [5 0] [0 4]] (REQUEST)
r 1.012420250 _5_ RTR  --- 0 AODV 48 [0 ffffffff 3 800] ------- [3:255 -1:255 28 0] [0x2 3 1 [5 0] [0 4]] (REQUEST)
r 1.014216868 _3_ RTR  --- 0 AODV 48 [0 ffffffff 1 800] ------- [1:255 -1:255 29 0] [0x2 2 1 [3 0] [2 4]] (REQUEST)
r 1.014217048 _2_ RTR  --- 0 AODV 48 [0 ffffffff 1 800] ------- [1:255 -1:255 29 0] [0x2 2 1 [3 0] [2 4]] (REQUEST)
r 1.014217084 _5_ RTR  --- 0 AODV 48 [0 ffffffff 1 800] ------- [1:255 -1:255 29 0] [0x2 2 1 [3 0] [2 4]] (REQUEST)
r 1.014217458 _4_ RTR  --- 0 AODV 48 [0 ffffffff 1 800] ------- [1:255 -1:255 29 0] [0x2 2 1 [3 0] [2 4]] (REQUEST)
r 1.017590803 _2_ RTR  --- 0 AODV 44 [13a 2 5 800] ------- [5:255 0:255 30 2] [0x4 1 [5 4] 10.000000] (REPLY)
f 1.017590803 _2_ RTR  --- 0 AODV 44 [13a 2 5 800] ------- [5:255 0:255 29 0] [0x4 2 [5 4] 10.000000] (REPLY)
r 1.019053776 _2_ RTR  --- 0 AODV 48 [0 ffffffff 0 800] ------- [0:255 -1:255 29 0] [0x2 2 1 [3 0] [2 4]] (REQUEST)
r 1.021250360 _3_ RTR  --- 0 AODV 48 [0 ffffffff 1 800] ------- [1:255 -1:255 28 0] [0x2 3 1 [5 0] [0 4]] (REQUEST)
r 1.021250540 _2_ RTR  --- 0 AODV 48 [0 ffffffff 1 800] ------- [1:255 -1:255 28 0] [0x2 3 1 [5 0] [0 4]] (REQUEST)
r 1.021250575 _5_ RTR  --- 0 AODV 48 [0 ffffffff 1 800] ------- [1:255 -1:255 28 0] [0x2 3 1 [5 0] [0 4]] (REQUEST)
r 1.021250948 _4_ RTR  --- 0 AODV 48 [0 ffffffff 1 800] ------- [1:255 -1:255 28 0] [0x2 3 1 [5 0] [0 4]] (REQUEST)
s 1.022615710 _4_ RTR  --- 0 AODV 48 [0 ffffffff 1 800] ------- [4:255 -1:255 28 0] [0x2 3 1 [3 0] [2 4]] (REQUEST)
r 1.025209151 _0_ RTR  --- 0 AODV 44 [13a 0 2 800] ------- [5:255 0:255 29 0] [0x4 2 [5 4] 10.000000] (REPLY)
s 1.025209151 _0_ RTR  --- 0 tcp 40 [0 0 0 0] ------- [0:0 5:0 30 2] [0 0] 0 0
s 1.025306139 _4_ RTR  --- 0 AODV 48 [0 ffffffff 1 800] ------- [4:255 -1:255 27 0] [0x2 4 1 [5 0] [0 4]] (REQUEST)
r 1.027555164 _2_ RTR  --- 0 tcp 40 [13a 2 0 800] ------- [0:0 5:0 30 2] [0 0] 1 0
f 1.027555164 _2_ RTR  --- 0 tcp 40 [13a 2 0 800] ------- [0:0 5:0 29 5] [0 0] 1 0
r 1.029581040 _5_ AGT  --- 0 tcp 40 [13a 5 2 800] ------- [0:0 5:0 29 5] [0 0] 2 0
s 1.029581040 _5_ AGT  --- 2 ack 40 [0 0 0 0] ------- [5:0 0:0 32 0] [0 0] 0 0
r 1.029581040 _5_ RTR  --- 2 ack 40 [0 0 0 0] ------- [5:0 0:0 32 0] [0 0] 0 0
s 1.029581040 _5_ RTR  --- 2 ack 40 [0 0 0 0] ------- [5:0 0:0 30 2] [0 0] 0 0
r 1.031466916 _2_ RTR  --- 2 ack 40 [13a 2 5 800] ------- [5:0 0:0 30 2] [0 0] 1 0
f 1.031466916 _2_ RTR  --- 2 ack 40 [13a 2 5 800] ------- [5:0 0:0 29 0] [0 0] 1 0
r 1.033372928 _0_ AGT  --- 2 ack 40 [13a 0 2 800] ------- [5:0 0:0 29 0] [0 0] 2 0
s 1.033372928 _0_ AGT  --- 3 tcp 1040 [0 0 0 0] ------- [0:0 5:0 32 0] [1 0] 0 0
r 1.033372928 _0_ RTR  --- 3 tcp 1040 [0 0 0 0] ------- [0:0 5:0 32 0] [1 0] 0 0
s 1.033372928 _0_ AGT  --- 4 tcp 1040 [0 0 0 0] ------- [0:0 5:0 32 0] [2 0] 0 0
r 1.033372928 _0_ RTR  --- 4 tcp 1040 [0 0 0 0] ------- [0:0 5:0 32 0] [2 0] 0 0
s 1.033372928 _0_ RTR  --- 3 tcp 1040 [0 0 0 0] ------- [0:0 5:0 30 2] [1 0] 0 0
s 1.033372928 _0_ RTR  --- 4 tcp 1040 [0 0 0 0] ------- [0:0 5:0 30 2] [2 0] 0 0
r 1.043578941 _2_ RTR  --- 3 tcp 1040 [13a 2 0 800] ------- [0:0 5:0 30 2] [1 0] 1 0
f 1.043578941 _2_ RTR  --- 3 tcp 1040 [13a 2 0 800] ------- [0:0 5:0 29 5] [1 0] 1 0
r 1.053544815 _5_ AGT  --- 3 tcp 1040 [13a 5 2 800] ------- [0:0 5:0 29 5] [1 0] 2 0
s 1.053544815 _5_ AGT  --- 5 ack 40 [0 0 0 0] ------- [5:0 0:0 32 0] [1 0] 0 0
r 1.053544815 _5_ RTR  --- 5 ack 40 [0 0 0 0] ------- [5:0 0:0 32 0] [1 0] 0 0
s 1.053544815 _5_ RTR  --- 5 ack 40 [0 0 0 0] ------- [5:0 0:0 30 2] [1 0] 0 0
r 1.055570689 _2_ RTR  --- 5 ack 40 [13a 2 5 800] ------- [5:0 0:0 30 2] [1 0] 1 0
f 1.055570689 _2_ RTR  --- 5 ack 40 [13a 2 5 800] ------- [5:0 0:0 29 0] [1 0] 1 0
r 1.065607006 _2_ RTR  --- 4 tcp 1040 [13a 2 0 800] ------- [0:0 5:0 30 2] [2 0] 1 0
f 1.065607006 _2_ RTR  --- 4 tcp 1040 [13a 2 0 800] ------- [0:0 5:0 29 5] [2 0] 1 0
r 1.067513018 _0_ AGT  --- 5 ack 40 [13a 0 2 800] ------- [5:0 0:0 29 0] [1 0] 2 0
s 1.067513018 _0_ AGT  --- 6 tcp 1040 [0 0 0 0] ------- [0:0 5:0 32 0] [3 0] 0 0
r 1.067513018 _0_ RTR  --- 6 tcp 1040 [0 0 0 0] ------- [0:0 5:0 32 0] [3 0] 0 0
s 1.067513018 _0_ AGT  --- 7 tcp 1040 [0 0 0 0] ------- [0:0 5:0 32 0] [4 0] 0 0
r 1.067513018 _0_ RTR  --- 7 tcp 1040 [0 0 0 0] ------- [0:0 5:0 32 0] [4 0] 0 0
s 1.067513018 _0_ RTR  --- 6 tcp 1040 [0 0 0 0] ------- [0:0 5:0 30 2] [3 0] 0 0
s 1.067513018 _0_ RTR  --- 7 tcp 1040 [0 0 0 0] ------- [0:0 5:0 30 2] [4 0] 0 0
r 1.077559031 _2_ RTR  --- 6 tcp 1040 [13a 2 0 800] ------- [0:0 5:0 30 2] [3 0] 1 0
f 1.077559031 _2_ RTR  --- 6 tcp 1040 [13a 2 0 800] ------- [0:0 5:0 29 5] [3 0] 1 0
r 1.087504902 _5_ AGT  --- 4 tcp 1040 [13a 5 2 800] ------- [0:0 5:0 29 5] [2 0] 2 0
s 1.087504902 _5_ AGT  --- 8 ack 40 [0 0 0 0] ------- [5:0 0:0 32 0] [2 0] 0 0
r 1.087504902 _5_ RTR  --- 8 ack 40 [0 0 0 0] ------- [5:0 0:0 32 0] [2 0] 0 0
s 1.087504902 _5_ RTR  --- 8 ack 40 [0 0 0 0] ------- [5:0 0:0 30 2] [2 0] 0 0
r 1.089530773 _2_ RTR  --- 8 ack 40 [13a 2 5 800] ------- [5:0 0:0 30 2] [2 0] 1 0
f 1.089530773 _2_ RTR  --- 8 ack 40 [13a 2 5 800] ------- [5:0 0:0 29 0] [2 0] 1 0
r 1.099396643 _5_ AGT  --- 6 tcp 1040 [13a 5 2 800] ------- [0:0 5:0 29 5] [3 0] 2 0
s 1.099396643 _5_ AGT  --- 9 ack 40 [0 0 0 0] ------- [5:0 0:0 32 0] [3 0] 0 0
r 1.099396643 _5_ RTR  --- 9 ack 40 [0 0 0 0] ------- [5:0 0:0 32 0] [3 0] 0 0
s 1.099396643 _5_ RTR  --- 9 ack 40 [0 0 0 0] ------- [5:0 0:0 30 2] [3 0] 0 0
r 1.101282512 _2_ RTR  --- 9 ack 40 [13a 2 5 800] ------- [5:0 0:0 30 2] [3 0] 1 0
f 1.101282512 _2_ RTR  --- 9 ack 40 [13a 2 5 800] ------- [5:0 0:0 29 0] [3 0] 1 0
r 1.111218831 _2_ RTR  --- 7 tcp 1040 [13a 2 0 800] ------- [0:0 5:0 30 2] [4 0] 1 0
f 1.111218831 _2_ RTR  --- 7 tcp 1040 [13a 2 0 800] ------- [0:0 5:0 29 5] [4 0] 1 0
r 1.113204843 _0_ AGT  --- 8 ack 40 [13a 0 2 800] ------- [5:0 0:0 29 0] [2 0] 2 0
s 1.113204843 _0_ AGT  --- 10 tcp 1040 [0 0 0 0] ------- [0:0 5:0 32 0] [5 0] 0 0
r 1.113204843 _0_ RTR  --- 10 tcp 1040 [0 0 0 0] ------- [0:0 5:0 32 0] [5 0] 0 0
s 1.113204843 _0_ AGT  --- 11 tcp 1040 [0 0 0 0] ------- [0:0 5:0 32 0] [6 0] 0 0
r 1.113204843 _0_ RTR  --- 11 tcp 1040 [0 0 0 0] ------- [0:0 5:0 32 0] [6 0] 0 0
s 1.113204843 _0_ RTR  --- 10 tcp 1040 [0 0 0 0] ------- [0:0 5:0 30 2] [5 0] 0 0
s 1.113204843 _0_ RTR  --- 11 tcp 1040 [0 0 0 0] ------- [0:0 5:0 30 2] [6 0] 0 0
r 1.123130856 _2_ RTR  --- 10 tcp 1040 [13a 2 0 800] ------- [0:0 5:0 30 2] [5 0] 1 0
f 1.123130856 _2_ RTR  --- 10 tcp 1040 [13a 2 0 800] ------- [0:0 5:0 29 5] [5 0] 1 0
r 1.125176868 _0_ AGT  --- 9 ack 40 [13a 0 2 800] ------- [5:0 0:0 29 0] [3 0] 2 0
s 1.125176868 _0_ AGT  --- 12 tcp 1040 [0 0 0 0] ------- [0:0 5:0 32 0] [7 0] 0 0
r 1.125176868 _0_ RTR  --- 12 tcp 1040 [0 0 0 0] ------- [0:0 5:0 32 0] [7 0] 0 0
s 1.125176868 _0_ AGT  --- 13 tcp 1040 [0 0 0 0] ------- [0:0 5:0 32 0] [8 0] 0 0
r 1.125176868 _0_ RTR  --- 13 tcp 1040 [0 0 0 0] ------- [0:0 5:0 32 0] [8 0] 0 0
s 1.125176868 _0_ RTR  --- 12 tcp 1040 [0 0 0 0] ------- [0:0 5:0 30 2] [7 0] 0 0
s 1.125176868 _0_ RTR  --- 13 tcp 1040 [0 0 0 0] ------- [0:0 5:0 30 2] [8 0] 0 0
r 1.135023406 _5_ AGT  --- 7 tcp 1040 [13a 5 2 800] ------- [0:0 5:0 29 5] [4 0] 2 0
s 1.135023406 _5_ AGT  --- 14 ack 40 [0 0 0 0] ------- [5:0 0:0 32 0] [4 0] 0 0
r 1.135023406 _5_ RTR  --- 14 ack 40 [0 0 0 0] ------- [5:0 0:0 32 0] [4 0] 0 0
s 1.135023406 _5_ RTR  --- 14 ack 40 [0 0 0 0] ------- [5:0 0:0 30 2] [4 0] 0 0
r 1.145089894 _5_ AGT  --- 10 tcp 1040 [13a 5 2 800] ------- [0:0 5:0 29 5] [5 0] 2 0
s 1.145089894 _5_ AGT  --- 15 ack 40 [0 0 0 0] ------- [5:0 0:0 32 0] [5 0] 0 0
r 1.145089894 _5_ RTR  --- 15 ack 40 [0 0 0 0] ------- [5:0 0:0 32 0] [5 0] 0 0
s 1.145089894 _5_ RTR  --- 15 ack 40 [0 0 0 0] ------- [5:0 0:0 30 2] [5 0] 0 0
r 1.147155759 _2_ RTR  --- 14 ack 40 [13a 2 5 800] ------- [5:0 0:0 30 2] [4 0] 1 0
f 1.147155759 _2_ RTR  --- 14 ack 40 [13a 2 5 800] ------- [5:0 0:0 29 0] [4 0] 1 0
r 1.149022246 _2_ RTR  --- 15 ack 40 [13a 2 5 800] ------- [5:0 0:0 30 2] [5 0] 1 0
f 1.149022246 _2_ RTR  --- 15 ack 40 [13a 2 5 800] ------- [5:0 0:0 29 0] [5 0] 1 0
r 1.158958566 _2_ RTR  --- 11 tcp 1040 [13a 2 0 800] ------- [0:0 5:0 30 2] [6 0] 1 0
f 1.158958566 _2_ RTR  --- 11 tcp 1040 [13a 2 0 800] ------- [0:0 5:0 29 5] [6 0] 1 0
r 1.168905249 _2_ RTR  --- 12 tcp 1040 [13a 2 0 800] ------- [0:0 5:0 30 2] [7 0] 1 0
f 1.168905249 _2_ RTR  --- 12 tcp 1040 [13a 2 0 800] ------- [0:0 5:0 29 5] [7 0] 1 0
r 1.170771262 _0_ AGT  --- 14 ack 40 [13a 0 2 800] ------- [5:0 0:0 29 0] [4 0] 2 0
s 1.170771262 _0_ AGT  --- 16 tcp 1040 [0 0 0 0] ------- [0:0 5:0 32 0] [9 0] 0 0
r 1.170771262 _0_ RTR  --- 16 tcp 1040 [0 0 0 0] ------- [0:0 5:0 32 0] [9 0] 0 0
s 1.170771262 _0_ AGT  --- 17 tcp 1040 [0 0 0 0] ------- [0:0 5:0 32 0] [10 0] 0 0
r 1.170771262 _0_ RTR  --- 17 tcp 1040 [0 0 0 0] ------- [0:0 5:0 32 0] [10 0] 0 0
s 1.170771262 _0_ RTR  --- 16 tcp 1040 [0 0 0 0] ------- [0:0 5:0 30 2] [9 0] 0 0
s 1.170771262 _0_ RTR  --- 17 tcp 1040 [0 0 0 0] ------- [0:0 5:0 30 2] [10 0] 0 0
r 1.172697945 _0_ AGT  --- 15 ack 40 [13a 0 2 800] ------- [5:0 0:0 29 0] [5 0] 2 0
s 1.172697945 _0_ AGT  --- 18 tcp 1040 [0 0 0 0] ------- [0:0 5:0 32 0] [11 0] 0 0
r 1.172697945 _0_ RTR  --- 18 tcp 1040 [0 0 0 0] ------- [0:0 5:0 32 0] [11 0] 0 0
s 1.172697945 _0_ AGT  --- 19 tcp 1040 [0 0 0 0] ------- [0:0 5:0 32 0] [12 0] 0 0
r 1.172697945 _0_ RTR  --- 19 tcp 1040 [0 0 0 0] ------- [0:0 5:0 32 0] [12 0] 0 0
s 1.172697945 _0_ RTR  --- 18 tcp 1040 [0 0 0 0] ------- [0:0 5:0 30 2] [11 0] 0 0
s 1.172697945 _0_ RTR  --- 19 tcp 1040 [0 0 0 0] ------- [0:0 5:0 30 2] [12 0] 0 0
r 1.183451299 _2_ RTR  --- 13 tcp 1040 [13a 2 0 800] ------- [0:0 5:0 30 2] [8 0] 1 0
f 1.183451299 _2_ RTR  --- 13 tcp 1040 [13a 2 0 800] ------- [0:0 5:0 29 5] [8 0] 1 0
r 1.193337982 _2_ RTR  --- 16 tcp 1040 [13a 2 0 800] ------- [0:0 5:0 30 2] [9 0] 1 0
f 1.193337982 _2_ RTR  --- 16 tcp 1040 [13a 2 0 800] ------- [0:0 5:0 29 5] [9 0] 1 0
r 1.203383843 _5_ AGT  --- 11 tcp 1040 [13a 5 2 800] ------- [0:0 5:0 29 5] [6 0] 2 0
s 1.203383843 _5_ AGT  --- 20 ack 40 [0 0 0 0] ------- [5:0 0:0 32 0] [6 0] 0 0
r 1.203383843 _5_ RTR  --- 20 ack 40 [0 0 0 0] ------- [5:0 0:0 32 0] [6 0] 0 0
s 1.203383843 _5_ RTR  --- 20 ack 40 [0 0 0 0] ------- [5:0 0:0 30 2] [6 0] 0 0
r 1.205269703 _2_ RTR  --- 20 ack 40 [13a 2 5 800] ------- [5:0 0:0 30 2] [6 0] 1 0
f 1.205269703 _2_ RTR  --- 20 ack 40 [13a 2 5 800] ------- [5:0 0:0 29 0] [6 0] 1 0
r 1.215286025 _2_ RTR  --- 17 tcp 1040 [13a 2 0 800] ------- [0:0 5:0 30 2] [10 0] 1 0
f 1.215286025 _2_ RTR  --- 17 tcp 1040 [13a 2 0 800] ------- [0:0 5:0 29 5] [10 0] 1 0
r 1.225172708 _2_ RTR  --- 18 tcp 1040 [13a 2 0 800] ------- [0:0 5:0 30 2] [11 0] 1 0
f 1.225172708 _2_ RTR  --- 18 tcp 1040 [13a 2 0 800] ------- [0:0 5:0 29 5] [11 0] 1 0
r 1.235318566 _5_ AGT  --- 12 tcp 1040 [13a 5 2 800] ------- [0:0 5:0 29 5] [7 0] 2 0
s 1.235318566 _5_ AGT  --- 21 ack 40 [0 0 0 0] ------- [5:0 0:0 32 0] [7 0] 0 0
r 1.235318566 _5_ RTR  --- 21 ack 40 [0 0 0 0] ------- [5:0 0:0 32 0] [7 0] 0 0
s 1.235318566 _5_ RTR  --- 21 ack 40 [0 0 0 0] ------- [5:0 0:0 30 2] [7 0] 0 0
r 1.237264422 _2_ RTR  --- 21 ack 40 [13a 2 5 800] ------- [5:0 0:0 30 2] [7 0] 1 0
f 1.237264422 _2_ RTR  --- 21 ack 40 [13a 2 5 800] ------- [5:0 0:0 29 0] [7 0] 1 0
r 1.247420746 _2_ RTR  --- 19 tcp 1040 [13a 2 0 800] ------- [0:0 5:0 30 2] [12 0] 1 0
f 1.247420746 _2_ RTR  --- 19 tcp 1040 [13a 2 0 800] ------- [0:0 5:0 29 5] [12 0] 1 0
r 1.257426602 _5_ AGT  --- 13 tcp 1040 [13a 5 2 800] ------- [0:0 5:0 29 5] [8 0] 2 0
s 1.257426602 _5_ AGT  --- 22 ack 40 [0 0 0 0] ------- [5:0 0:0 32 0] [8 0] 0 0
r 1.257426602 _5_ RTR  --- 22 ack 40 [0 0 0 0] ------- [5:0 0:0 32 0] [8 0] 0 0
s 1.257426602 _5_ RTR  --- 22 ack 40 [0 0 0 0] ------- [5:0 0:0 30 2] [8 0] 0 0
r 1.259552456 _2_ RTR  --- 22 ack 40 [13a 2 5 800] ------- [5:0 0:0 30 2] [8 0] 1 0
f 1.259552456 _2_ RTR  --- 22 ack 40 [13a 2 5 800] ------- [5:0 0:0 29 0] [8 0] 1 0
r 1.269398311 _5_ AGT  --- 16 tcp 1040 [13a 5 2 800] ------- [0:0 5:0 29 5] [9 0] 2 0
s 1.269398311 _5_ AGT  --- 23 ack 40 [0 0 0 0] ------- [5:0 0:0 32 0] [9 0] 0 0
r 1.269398311 _5_ RTR  --- 23 ack 40 [0 0 0 0] ------- [5:0 0:0 32 0] [9 0] 0 0
s 1.269398311 _5_ RTR  --- 23 ack 40 [0 0 0 0] ------- [5:0 0:0 30 2] [9 0] 0 0
r 1.271524164 _2_ RTR  --- 23 ack 40 [13a 2 5 800] ------- [5:0 0:0 30 2] [9 0] 1 0
f 1.271524164 _2_ RTR  --- 23 ack 40 [13a 2 5 800] ------- [5:0 0:0 29 0] [9 0] 1 0
r 1.273410176 _0_ AGT  --- 20 ack 40 [13a 0 2 800] ------- [5:0 0:0 29 0] [6 0] 2 0
s 1.273410176 _0_ AGT  --- 24 tcp 1040 [0 0 0 0] ------- [0:0 5:0 32 0] [13 0] 0 0
r 1.273410176 _0_ RTR  --- 24 tcp 1040 [0 0 0 0] ------- [0:0 5:0 32 0] [13 0] 0 0
s 1.273410176 _0_ AGT  --- 25 tcp 1040 [0 0 0 0] ------- [0:0 5:0 32 0] [14 0] 0 0
r 1.273410176 _0_ RTR  --- 25 tcp 1040 [0 0 0 0] ------- [0:0 5:0 32 0] [14 0] 0 0
s 1.273410176 _0_ RTR  --- 24 tcp 1040 [0 0 0 0] ------- [0:0 5:0 30 2] [13 0] 0 0
s 1.273410176 _0_ RTR  --- 25 tcp 1040 [0 0 0 0] ------- [0:0 5:0 30 2] [14 0] 0 0
r 1.283616189 _2_ RTR  --- 24 tcp 1040 [13a 2 0 800] ------- [0:0 5:0 30 2] [13 0] 1 0
f 1.283616189 _2_ RTR  --- 24 tcp 1040 [13a 2 0 800] ------- [0:0 5:0 29 5] [13 0] 1 0
r 1.285877340 _1_ RTR  --- 0 AODV 48 [0 ffffffff 4 800] ------- [4:255 -1:255 28 0] [0x2 3 1 [3 0] [2 4]] (REQUEST)
r 1.287215340 _1_ RTR  --- 0 AODV 48 [0 ffffffff 4 800] ------- [4:255 -1:255 27 0] [0x2 4 1 [5 0] [0 4]] (REQUEST)
r 1.297151594 _5_ AGT  --- 17 tcp 1040 [13a 5 2 800] ------- [0:0 5:0 29 5] [10 0] 2 0
s 1.297151594 _5_ AGT  --- 26 ack 40 [0 0 0 0] ------- [5:0 0:0 32 0] [10 0] 0 0
r 1.297151594 _5_ RTR  --- 26 ack 40 [0 0 0 0] ------- [5:0 0:0 32 0] [10 0] 0 0
s 1.297151594 _5_ RTR  --- 26 ack 40 [0 0 0 0] ------- [5:0 0:0 30 2] [10 0] 0 0
r 1.299097445 _2_ RTR  --- 26 ack 40 [13a 2 5 800] ------- [5:0 0:0 30 2] [10 0] 1 0
f 1.299097445 _2_ RTR  --- 26 ack 40 [13a 2 5 800] ------- [5:0 0:0 29 0] [10 0] 1 0
r 1.308983296 _5_ AGT  --- 18 tcp 1040 [13a 5 2 800] ------- [0:0 5:0 29 5] [11 0] 2 0
s 1.308983296 _5_ AGT  --- 27 ack 40 [0 0 0 0] ------- [5:0 0:0 32 0] [11 0] 0 0
r 1.308983296 _5_ RTR  --- 27 ack 40 [0 0 0 0] ------- [5:0 0:0 32 0] [11 0] 0 0
s 1.308983296 _5_ RTR  --- 27 ack 40 [0 0 0 0] ------- [5:0 0:0 30 2] [11 0] 0 0
r 1.310809925 _0_ AGT  --- 21 ack 40 [13a 0 2 800] ------- [5:0 0:0 29 0] [7 0] 2 0
s 1.310809925 _0_ AGT  --- 28 tcp 1040 [0 0 0 0] ------- [0:0 5:0 32 0] [15 0] 0 0
r 1.310809925 _0_ RTR  --- 28 tcp 1040 [0 0 0 0] ------- [0:0 5:0 32 0] [15 0] 0 0
s 1.310809925 _0_ AGT  --- 29 tcp 1040 [0 0 0 0] ------- [0:0 5:0 32 0] [16 0] 0 0
r 1.310809925 _0_ RTR  --- 29 tcp 1040 [0 0 0 0] ------- [0:0 5:0 32 0] [16 0] 0 0
s 1.310809925 _0_ RTR  --- 28 tcp 1040 [0 0 0 0] ------- [0:0 5:0 30 2] [15 0] 0 0
s 1.310809925 _0_ RTR  --- 29 tcp 1040 [0 0 0 0] ------- [0:0 5:0 30 2] [16 0] 0 0
r 1.320776445 _5_ AGT  --- 19 tcp 1040 [13a 5 2 800] ------- [0:0 5:0 29 5] [12 0] 2 0
s 1.320776445 _5_ AGT  --- 30 ack 40 [0 0 0 0] ------- [5:0 0:0 32 0] [12 0] 0 0
r 1.320776445 _5_ RTR  --- 30 ack 40 [0 0 0 0] ------- [5:0 0:0 32 0] [12 0] 0 0
s 1.320776445 _5_ RTR  --- 30 ack 40 [0 0 0 0] ------- [5:0 0:0 30 2] [12 0] 0 0
r 1.322782294 _2_ RTR  --- 27 ack 40 [13a 2 5 800] ------- [5:0 0:0 30 2] [11 0] 1 0
f 1.322782294 _2_ RTR  --- 27 ack 40 [13a 2 5 800] ------- [5:0 0:0 29 0] [11 0] 1 0
r 1.324808306 _0_ AGT  --- 22 ack 40 [13a 0 2 800] ------- [5:0 0:0 29 0] [8 0] 2 0
s 1.324808306 _0_ AGT  --- 31 tcp 1040 [0 0 0 0] ------- [0:0 5:0 32 0] [17 0] 0 0
r 1.324808306 _0_ RTR  --- 31 tcp 1040 [0 0 0 0] ------- [0:0 5:0 32 0] [17 0] 0 0
s 1.324808306 _0_ AGT  --- 32 tcp 1040 [0 0 0 0] ------- [0:0 5:0 32 0] [18 0] 0 0
r 1.324808306 _0_ RTR  --- 32 tcp 1040 [0 0 0 0] ------- [0:0 5:0 32 0] [18 0] 0 0
s 1.324808306 _0_ RTR  --- 31 tcp 1040 [0 0 0 0] ------- [0:0 5:0 30 2] [17 0] 0 0
s 1.324808306 _0_ RTR  --- 32 tcp 1040 [0 0 0 0] ------- [0:0 5:0 30 2] [18 0] 0 0
r 1.334974319 _2_ RTR  --- 25 tcp 1040 [13a 2 0 800] ------- [0:0 5:0 30 2] [14 0] 1 0
f 1.334974319 _2_ RTR  --- 25 tcp 1040 [13a 2 0 800] ------- [0:0 5:0 29 5] [14 0] 1 0
r 1.336900331 _0_ AGT  --- 23 ack 40 [13a 0 2 800] ------- [5:0 0:0 29 0] [9 0] 2 0
s 1.336900331 _0_ AGT  --- 33 tcp 1040 [0 0 0 0] ------- [0:0 5:0 32 0] [19 0] 0 0
r 1.336900331 _0_ RTR  --- 33 tcp 1040 [0 0 0 0] ------- [0:0 5:0 32 0] [19 0] 0 0
s 1.336900331 _0_ AGT  --- 34 tcp 1040 [0 0 0 0] ------- [0:0 5:0 32 0] [20 0] 0 0
r 1.336900331 _0_ RTR  --- 34 tcp 1040 [0 0 0 0] ------- [0:0 5:0 32 0] [20 0] 0 0
s 1.336900331 _0_ RTR  --- 33 tcp 1040 [0 0 0 0] ------- [0:0 5:0 30 2] [19 0] 0 0
s 1.336900331 _0_ RTR  --- 34 tcp 1040 [0 0 0 0] ------- [0:0 5:0 30 2] [20 0] 0 0
r 1.347046849 _5_ AGT  --- 24 tcp 1040 [13a 5 2 800] ------- [0:0 5:0 29 5] [13 0] 2 0
s 1.347046849 _5_ AGT  --- 35 ack 40 [0 0 0 0] ------- [5:0 0:0 32 0] [13 0] 0 0
r 1.347046849 _5_ RTR  --- 35 ack 40 [0 0 0 0] ------- [5:0 0:0 32 0] [13 0] 0 0
s 1.347046849 _5_ RTR  --- 35 ack 40 [0 0 0 0] ------- [5:0 0:0 30 2] [13 0] 0 0
r 1.348972696 _2_ RTR  --- 30 ack 40 [13a 2 5 800] ------- [5:0 0:0 30 2] [12 0] 1 0
f 1.348972696 _2_ RTR  --- 30 ack 40 [13a 2 5 800] ------- [5:0 0:0 29 0] [12 0] 1 0
r 1.350819157 _2_ RTR  --- 35 ack 40 [13a 2 5 800] ------- [5:0 0:0 30 2] [13 0] 1 0
f 1.350819157 _2_ RTR  --- 35 ack 40 [13a 2 5 800] ------- [5:0 0:0 29 0] [13 0] 1 0
r 1.352705170 _0_ AGT  --- 26 ack 40 [13a 0 2 800] ------- [5:0 0:0 29 0] [10 0] 2 0
s 1.352705170 _0_ AGT  --- 36 tcp 1040 [0 0 0 0] ------- [0:0 5:0 32 0] [21 0] 0 0
r 1.352705170 _0_ RTR  --- 36 tcp 1040 [0 0 0 0] ------- [0:0 5:0 32 0] [21 0] 0 0
s 1.352705170 _0_ AGT  --- 37 tcp 1040 [0 0 0 0] ------- [0:0 5:0 32 0] [22 0] 0 0
r 1.352705170 _0_ RTR  --- 37 tcp 1040 [0 0 0 0] ------- [0:0 5:0 32 0] [22 0] 0 0
s 1.352705170 _0_ RTR  --- 36 tcp 1040 [0 0 0 0] ------- [0:0 5:0 30 2] [21 0] 0 0
s 1.352705170 _0_ RTR  --- 37 tcp 1040 [0 0 0 0] ------- [0:0 5:0 30 2] [22 0] 0 0
r 1.355957853 _0_ AGT  --- 27 ack 40 [13a 0 2 800] ------- [5:0 0:0 29 0] [11 0] 2 0
s 1.355957853 _0_ AGT  --- 38 tcp 1040 [0 0 0 0] ------- [0:0 5:0 32 0] [23 0] 0 0
r 1.355957853 _0_ RTR  --- 38 tcp 1040 [0 0 0 0] ------- [0:0 5:0 32 0] [23 0] 0 0
s 1.355957853 _0_ AGT  --- 39 tcp 1040 [0 0 0 0] ------- [0:0 5:0 32 0] [24 0] 0 0
r 1.355957853 _0_ RTR  --- 39 tcp 1040 [0 0 0 0] ------- [0:0 5:0 32 0] [24 0] 0 0
s 1.355957853 _0_ RTR  --- 38 tcp 1040 [0 0 0 0] ------- [0:0 5:0 30 2] [23 0] 0 0
s 1.355957853 _0_ RTR  --- 39 tcp 1040 [0 0 0 0] ------- [0:0 5:0 30 2] [24 0] 0 0
r 1.365963865 _2_ RTR  --- 28 tcp 1040 [13a 2 0 800] ------- [0:0 5:0 30 2] [15 0] 1 0
f 1.365963865 _2_ RTR  --- 28 tcp 1040 [13a 2 0 800] ------- [0:0 5:0 29 5] [15 0] 1 0
r 1.376149710 _5_ AGT  --- 25 tcp 1040 [13a 5 2 800] ------- [0:0 5:0 29 5] [14 0] 2 0
s 1.376149710 _5_ AGT  --- 40 ack 40 [0 0 0 0] ------- [5:0 0:0 32 0] [14 0] 0 0
r 1.376149710 _5_ RTR  --- 40 ack 40 [0 0 0 0] ------- [5:0 0:0 32 0] [14 0] 0 0
s 1.376149710 _5_ RTR  --- 40 ack 40 [0 0 0 0] ------- [5:0 0:0 30 2] [14 0] 0 0
r 1.377996337 _0_ AGT  --- 30 ack 40 [13a 0 2 800] ------- [5:0 0:0 29 0] [12 0] 2 0
s 1.377996337 _0_ AGT  --- 41 tcp 1040 [0 0 0 0] ------- [0:0 5:0 32 0] [25 0] 0 0
r 1.377996337 _0_ RTR  --- 41 tcp 1040 [0 0 0 0] ------- [0:0 5:0 32 0] [25 0] 0 0
s 1.377996337 _0_ AGT  --- 42 tcp 1040 [0 0 0 0] ------- [0:0 5:0 32 0] [26 0] 0 0
r 1.377996337 _0_ RTR  --- 42 tcp 1040 [0 0 0 0] ------- [0:0 5:0 32 0] [26 0] 0 0
s 1.377996337 _0_ RTR  --- 41 tcp 1040 [0 0 0 0] ------- [0:0 5:0 30 2] [25 0] 0 0
s 1.377996337 _0_ RTR  --- 42 tcp 1040 [0 0 0 0] ------- [0:0 5:0 30 2] [26 0] 0 0
r 1.379843020 _0_ AGT  --- 35 ack 40 [13a 0 2 800] ------- [5:0 0:0 29 0] [13 0] 2 0
s 1.379843020 _0_ AGT  --- 43 tcp 1040 [0 0 0 0] ------- [0:0 5:0 32 0] [27 0] 0 0
r 1.379843020 _0_ RTR  --- 43 tcp 1040 [0 0 0 0] ------- [0:0 5:0 32 0] [27 0] 0 0
s 1.379843020 _0_ AGT  --- 44 tcp 1040 [0 0 0 0] ------- [0:0 5:0 32 0] [28 0] 0 0
r 1.379843020 _0_ RTR  --- 44 tcp 1040 [0 0 0 0] ------- [0:0 5:0 32 0] [28 0] 0 0
s 1.379843020 _0_ RTR  --- 43 tcp 1040 [0 0 0 0] ------- [0:0 5:0 30 2] [27 0] 0 0
s 1.379843020 _0_ RTR  --- 44 tcp 1040 [0 0 0 0] ------- [0:0 5:0 30 2] [28 0] 0 0
r 1.389729534 _5_ AGT  --- 28 tcp 1040 [13a 5 2 800] ------- [0:0 5:0 29 5] [15 0] 2 0
s 1.389729534 _5_ AGT  --- 45 ack 40 [0 0 0 0] ------- [5:0 0:0 32 0] [15 0] 0 0
r 1.389729534 _5_ RTR  --- 45 ack 40 [0 0 0 0] ------- [5:0 0:0 32 0] [15 0] 0 0
s 1.389729534 _5_ RTR  --- 45 ack 40 [0 0 0 0] ------- [5:0 0:0 30 2] [15 0] 0 0
r 1.391955376 _2_ RTR  --- 40 ack 40 [13a 2 5 800] ------- [5:0 0:0 30 2] [14 0] 1 0
f 1.391955376 _2_ RTR  --- 40 ack 40 [13a 2 5 800] ------- [5:0 0:0 29 0] [14 0] 1 0
r 1.393801389 _0_ AGT  --- 40 ack 40 [13a 0 2 800] ------- [5:0 0:0 29 0] [14 0] 2 0
s 1.393801389 _0_ AGT  --- 46 tcp 1040 [0 0 0 0] ------- [0:0 5:0 32 0] [29 0] 0 0
r 1.393801389 _0_ RTR  --- 46 tcp 1040 [0 0 0 0] ------- [0:0 5:0 32 0] [29 0] 0 0
s 1.393801389 _0_ AGT  --- 47 tcp 1040 [0 0 0 0] ------- [0:0 5:0 32 0] [30 0] 0 0
r 1.393801389 _0_ RTR  --- 47 tcp 1040 [0 0 0 0] ------- [0:0 5:0 32 0] [30 0] 0 0
s 1.393801389 _0_ RTR  --- 46 tcp 1040 [0 0 0 0] ------- [0:0 5:0 30 2] [29 0] 0 0
s 1.393801389 _0_ RTR  --- 47 tcp 1040 [0 0 0 0] ------- [0:0 5:0 30 2] [30 0] 0 0
r 1.403787401 _2_ RTR  --- 29 tcp 1040 [13a 2 0 800] ------- [0:0 5:0 30 2] [16 0] 1 0
f 1.403787401 _2_ RTR  --- 29 tcp 1040 [13a 2 0 800] ------- [0:0 5:0 29 5] [16 0] 1 0
r 1.405683503 _2_ RTR  --- 45 ack 40 [13a 2 5 800] ------- [5:0 0:0 30 2] [15 0] 1 0
f 1.405683503 _2_ RTR  --- 45 ack 40 [13a 2 5 800] ------- [5:0 0:0 29 0] [15 0] 1 0
r 1.415689344 _5_ AGT  --- 29 tcp 1040 [13a 5 2 800] ------- [0:0 5:0 29 5] [16 0] 2 0
s 1.415689344 _5_ AGT  --- 48 ack 40 [0 0 0 0] ------- [5:0 0:0 32 0] [16 0] 0 0
r 1.415689344 _5_ RTR  --- 48 ack 40 [0 0 0 0] ------- [5:0 0:0 32 0] [16 0] 0 0
s 1.415689344 _5_ RTR  --- 48 ack 40 [0 0 0 0] ------- [5:0 0:0 30 2] [16 0] 0 0
r 1.417735184 _2_ RTR  --- 48 ack 40 [13a 2 5 800] ------- [5:0 0:0 30 2] [16 0] 1 0
f 1.417735184 _2_ RTR  --- 48 ack 40 [13a 2 5 800] ------- [5:0 0:0 29 0] [16 0] 1 0
r 1.419841196 _0_ AGT  --- 45 ack 40 [13a 0 2 800] ------- [5:0 0:0 29 0] [15 0] 2 0
s 1.419841196 _0_ AGT  --- 49 tcp 1040 [0 0 0 0] ------- [0:0 5:0 32 0] [31 0] 0 0
r 1.419841196 _0_ RTR  --- 49 tcp 1040 [0 0 0 0] ------- [0:0 5:0 32 0] [31 0] 0 0
s 1.419841196 _0_ AGT  --- 50 tcp 1040 [0 0 0 0] ------- [0:0 5:0 32 0] [32 0] 0 0
r 1.419841196 _0_ RTR  --- 50 tcp 1040 [0 0 0 0] ------- [0:0 5:0 32 0] [32 0] 0 0
s 1.419841196 _0_ RTR  --- 49 tcp 1040 [0 0 0 0] ------- [0:0 5:0 30 2] [31 0] 0 0
s 1.419841196 _0_ RTR  --- 50 tcp 1040 [0 0 0 0] ------- [0:0 5:0 30 2] [32 0] 0 0
r 1.429707209 _2_ RTR  --- 31 tcp 1040 [13a 2 0 800] ------- [0:0 5:0 30 2] [17 0] 1 0
f 1.429707209 _2_ RTR  --- 31 tcp 1040 [13a 2 0 800] ------- [0:0 5:0 29 5] [17 0] 1 0
r 1.431693221 _0_ AGT  --- 48 ack 40 [13a 0 2 800] ------- [5:0 0:0 29 0] [16 0] 2 0
s 1.431693221 _0_ AGT  --- 51 tcp 1040 [0 0 0 0] ------- [0:0 5:0 32 0] [33 0] 0 0
r 1.431693221 _0_ RTR  --- 51 tcp 1040 [0 0 0 0] ------- [0:0 5:0 32 0] [33 0] 0 0
s 1.431693221 _0_ AGT  --- 52 tcp 1040 [0 0 0 0] ------- [0:0 5:0 32 0] [34 0] 0 0
r 1.431693221 _0_ RTR  --- 52 tcp 1040 [0 0 0 0] ------- [0:0 5:0 32 0] [34 0] 0 0
s 1.431693221 _0_ RTR  --- 51 tcp 1040 [0 0 0 0] ------- [0:0 5:0 30 2] [33 0] 0 0
s 1.431693221 _0_ RTR  --- 52 tcp 1040 [0 0 0 0] ------- [0:0 5:0 30 2] [34 0] 0 0
r 1.441699730 _5_ AGT  --- 31 tcp 1040 [13a 5 2 800] ------- [0:0 5:0 29 5] [17 0] 2 0
s 1.441699730 _5_ AGT  --- 53 ack 40 [0 0 0 0] ------- [5:0 0:0 32 0] [17 0] 0 0
r 1.441699730 _5_ RTR  --- 53 ack 40 [0 0 0 0] ------- [5:0 0:0 32 0] [17 0] 0 0
s 1.441699730 _5_ RTR  --- 53 ack 40 [0 0 0 0] ------- [5:0 0:0 30 2] [17 0] 0 0
r 1.443665568 _2_ RTR  --- 53 ack 40 [13a 2 5 800] ------- [5:0 0:0 30 2] [17 0] 1 0
f 1.443665568 _2_ RTR  --- 53 ack 40 [13a 2 5 800] ------- [5:0 0:0 29 0] [17 0] 1 0
r 1.445611580 _0_ AGT  --- 53 ack 40 [13a 0 2 800] ------- [5:0 0:0 29 0] [17 0] 2 0
s 1.445611580 _0_ AGT  --- 54 tcp 1040 [0 0 0 0] ------- [0:0 5:0 32 0] [35 0] 0 0
r 1.445611580 _0_ RTR  --- 54 tcp 1040 [0 0 0 0] ------- [0:0 5:0 32 0] [35 0] 0 0
s 1.445611580 _0_ AGT  --- 55 tcp 1040 [0 0 0 0] ------- [0:0 5:0 32 0] [36 0] 0 0
r 1.445611580 _0_ RTR  --- 55 tcp 1040 [0 0 0 0] ------- [0:0 5:0 32 0] [36 0] 0 0
s 1.445611580 _0_ RTR  --- 54 tcp 1040 [0 0 0 0] ------- [0:0 5:0 30 2] [35 0] 0 0
s 1.445611580 _0_ RTR  --- 55 tcp 1040 [0 0 0 0] ------- [0:0 5:0 30 2] [36 0] 0 0
r 1.455597593 _2_ RTR  --- 32 tcp 1040 [13a 2 0 800] ------- [0:0 5:0 30 2] [18 0] 1 0
f 1.455597593 _2_ RTR  --- 32 tcp 1040 [13a 2 0 800] ------- [0:0 5:0 29 5] [18 0] 1 0
r 1.465423429 _5_ AGT  --- 32 tcp 1040 [13a 5 2 800] ------- [0:0 5:0 29 5] [18 0] 2 0
s 1.465423429 _5_ AGT  --- 56 ack 40 [0 0 0 0] ------- [5:0 0:0 32 0] [18 0] 0 0
r 1.465423429 _5_ RTR  --- 56 ack 40 [0 0 0 0] ------- [5:0 0:0 32 0] [18 0] 0 0
s 1.465423429 _5_ RTR  --- 56 ack 40 [0 0 0 0] ------- [5:0 0:0 30 2] [18 0] 0 0
r 1.467809264 _2_ RTR  --- 56 ack 40 [13a 2 5 800] ------- [5:0 0:0 30 2] [18 0] 1 0
f 1.467809264 _2_ RTR  --- 56 ack 40 [13a 2 5 800] ------- [5:0 0:0 29 0] [18 0] 1 0
r 1.469675277 _0_ AGT  --- 56 ack 40 [13a 0 2 800] ------- [5:0 0:0 29 0] [18 0] 2 0
s 1.469675277 _0_ AGT  --- 57 tcp 1040 [0 0 0 0] ------- [0:0 5:0 32 0] [37 0] 0 0
r 1.469675277 _0_ RTR  --- 57 tcp 1040 [0 0 0 0] ------- [0:0 5:0 32 0] [37 0] 0 0
s 1.469675277 _0_ AGT  --- 58 tcp 1040 [0 0 0 0] ------- [0:0 5:0 32 0] [38 0] 0 0
r 1.469675277 _0_ RTR  --- 58 tcp 1040 [0 0 0 0] ------- [0:0 5:0 32 0] [38 0] 0 0
s 1.469675277 _0_ RTR  --- 57 tcp 1040 [0 0 0 0] ------- [0:0 5:0 30 2] [37 0] 0 0
s 1.469675277 _0_ RTR  --- 58 tcp 1040 [0 0 0 0] ------- [0:0 5:0 30 2] [38 0] 0 0
r 1.479861289 _2_ RTR  --- 33 tcp 1040 [13a 2 0 800] ------- [0:0 5:0 30 2] [19 0] 1 0
f 1.479861289 _2_ RTR  --- 33 tcp 1040 [13a 2 0 800] ------- [0:0 5:0 29 5] [19 0] 1 0
r 1.489827973 _2_ RTR  --- 34 tcp 1040 [13a 2 0 800] ------- [0:0 5:0 30 2] [20 0] 1 0
f 1.489827973 _2_ RTR  --- 34 tcp 1040 [13a 2 0 800] ------- [0:0 5:0 29 5] [20 0] 1 0
r 1.499894656 _2_ RTR  --- 36 tcp 1040 [13a 2 0 800] ------- [0:0 5:0 30 2] [21 0] 1 0
f 1.499894656 _2_ RTR  --- 36 tcp 1040 [13a 2 0 800] ------- [0:0 5:0 29 5] [21 0] 1 0
r 1.509860488 _5_ AGT  --- 33 tcp 1040 [13a 5 2 800] ------- [0:0 5:0 29 5] [19 0] 2 0
s 1.509860488 _5_ AGT  --- 59 ack 40 [0 0 0 0] ------- [5:0 0:0 32 0] [19 0] 0 0